64
Lattice="7.003759 -0.013391 0.017242 -0.01846 6.989758 -0.018319 -0.011056 0.013257 7.016678" Properties=species:S:1:pos:R:3:force:R:3:Z:I:1 DFT_virial="26.739 6.04399 -1.80615 6.04399 30.4454 1.5199 -1.80615 1.5199 22.5216" energy=-10116.363381 pbc="T T T"
C       0.00733624      -0.01257104      -0.01661387       0.12766428       0.16087509       0.99143424        6 
C       0.89948307       0.87326898       0.87139891      -1.17787261      -0.68549687       0.35657208        6 
C       1.74245228       1.77102144      -0.02370789       0.73230580      -0.96948707       0.72259456        6 
C       2.63042999       2.65327225       0.88046358       0.13160530      -1.53766071      -1.81220926        6 
C       1.76004547      -0.02720302       1.77406614       0.13549353       1.49814041      -1.02019187        6 
C       2.61262621       0.90798174       2.62032062       0.78631242      -1.69203130       0.30805868        6 
C      -0.04603686       1.74148770       1.78567626       2.24902069      -0.19216601      -1.16567673        6 
C       0.87777263       2.61695352       2.61618652      -0.56338688      -0.00769427       0.55885435        6 
C      -0.01395131       0.01248855      -3.49474718       1.00318457      -0.90122348       0.34097064        6 
C       0.89705551       0.90339429      -2.59226085      -1.02773612      -1.90927838      -0.95224414        6 
C       1.76748514       1.73428966      -3.48544139      -0.66978377       0.60335165      -1.05069922        6 
C       2.58533100       2.63016762      -2.62440626       1.87803520       0.15853266      -0.67465439        6 
C       1.75051718      -0.04082553      -1.73700003       0.40618534       1.82288017      -0.78851102        6 
C       2.63535549       0.89434275      -0.90747134      -0.41094023      -1.54278055       2.11037643        6 
C       0.01735811       1.77644927      -1.72261527      -1.37098344      -1.57749310      -1.66405515        6 
C       0.84368252       2.59710939      -0.89799706       1.74393197       2.46158844       1.66297865        6 
C       0.02847921       3.48166208       0.02582686      -2.48817279       0.24589105      -1.68010406        6 
C       0.86475359      -2.62301109       0.86759239       1.36427369      -0.62938057       1.37400181        6 
C       1.72083279      -1.76126608       0.02485857       2.09367816       0.44237686      -1.05289683        6 
C       2.65988145      -0.88446656       0.88496431      -1.56897464       0.50558059       0.63100295        6 
C       1.74939975       3.47991202       1.71369809      -0.12761617       1.33650581       1.56340680        6 
C       2.66083338      -2.61378351       2.63380008      -1.12911745       0.62132381      -1.06471806        6 
C       0.02012385      -1.78071546       1.76681872      -0.85008191       0.54349049       0.23441453        6 
C       0.90544658      -0.90642454       2.63571028      -1.48427173       1.25271958       0.35505416        6 
C       0.00066405       3.48810794      -3.51452634       0.97175392      -0.33443485      -0.20770369        6 
C       0.91039055      -2.64974360      -2.61929971      -1.56765325       2.05100049      -0.84336834        6 
C       1.78003739      -1.73863450       3.50820186      -0.92687489      -1.11172586       0.13576975        6 
C       2.61310560      -0.87291009      -2.64072771       0.69372628      -0.96104515       0.72701330        6 
C       1.72576972      -3.49948038      -1.76065357       1.58528557      -0.16146874       1.91070201        6 
C       2.66771715      -2.61484642      -0.82406469      -2.22135875      -0.98131293      -2.19075885        6 
C      -0.00600221      -1.71166261      -1.76825603      -0.07969602      -2.74463575       0.44154241        6 
C       0.86775384      -0.91199170      -0.90971590       0.42132846       1.58321163       1.85731795        6 
C      -3.48371205      -0.00695774       0.02346970      -0.76120639       1.76855783      -2.00514163        6 
C      -2.60597079       0.91656702       0.84283010      -0.34148789      -1.74192828       1.43950055        6 
C      -1.72255003       1.76279993       0.02690972      -0.70163131       0.15540377      -2.20461414        6 
C      -0.87039766       2.61237358       0.87983536      -0.04045839       0.77693209       1.10704997        6 
C      -1.73497547       0.00936278       1.74069199      -0.88321710       0.01895500       1.00132544        6 
C      -0.90313144       0.86941288       2.65016543       1.20798966      -0.21327035      -1.07134089        6 
C      -3.48709791       1.77563193       1.70542885      -0.76987722       0.24329594       1.29605214        6 
C      -2.63575769       2.66992428       2.61217326       0.01813325      -2.01472544       0.07784076        6 
C       3.47067996      -0.02170092       3.50166401       0.64901477       2.10523060       0.45560738        6 
C      -2.64340277       0.88175289      -2.65883276       0.11889545      -0.56723687       0.48185134        6 
C      -1.73876691       1.72194156       3.49556169      -1.50106688       2.26204913       0.58381096        6 
C      -0.84402094       2.63129916      -2.64832749      -0.98118209      -1.23848574       0.67344990        6 
C      -1.78238076      -0.03333940      -1.78783483       0.01882546       2.38723261       2.00173153        6 
C      -0.85760664       0.90797063      -0.84851735      -0.73714479      -1.81724412      -1.37024939        6 
C       3.49449345       1.76086678      -1.74814020       0.53297478      -0.34652658      -0.93685059        6 
C      -2.60401435       2.63313233      -0.90798601      -0.58295695      -0.75695305       0.55335232        6 
C      -3.48840193       3.49661430      -0.04154059      -0.15767265       0.32127502       0.78321639        6 
C      -2.59988225      -2.64502129       0.84188377      -0.05225524       1.97686457       1.37416597        6 
C      -1.75551856      -1.72529201      -0.03273906      -0.01319600      -0.98863062       1.93158065        6 
C      -0.87925626      -0.90294850       0.90871388       0.55047627       1.14043131      -1.42492708        6 
C      -1.74773903      -3.48562524       1.77346520       0.86562892      -0.17547773      -1.14935076        6 
C      -0.86445070      -2.65260715       2.65600197      -0.11603734       1.56632470      -0.95466387        6 
C      -3.46278922      -1.70197871       1.73925813      -0.59029555      -2.10570465      -0.09047114        6 
C      -2.62815659      -0.84890985       2.65978699       0.40105980      -0.39739527      -2.37442630        6 
C       3.49514001      -3.46201362       3.48779459       0.12068894      -1.66816967       1.45443515        6 
C      -2.63313256      -2.62606178      -2.66588765       0.80221179      -0.20391324       0.91871273        6 
C      -1.75990790      -1.75360229       3.47835342       0.41722662       0.49105196       1.54901136        6 
C      -0.90615516      -0.87648883      -2.61105316       1.11134511      -0.20190573      -1.67322115        6 
C      -1.74939952       3.47449322      -1.78290504       0.05006848       1.43393702      -0.00604233        6 
C      -0.89028114      -2.60216987      -0.83528103       1.50687798      -0.86415717      -2.25810172        6 
C       3.49693157      -1.79206880      -1.77164185      -0.04122163       1.78967414       1.28371313        6 
C      -2.66002948      -0.86577535      -0.86643966       1.24022563      -0.48364431      -1.56128038        6 
64
Lattice="7.004302 -0.006652 0.00083 0.000264 7.015328 -0.006957 -0.018148 0.022241 7.026229" Properties=species:S:1:pos:R:3:force:R:3:Z:I:1 DFT_virial="24.6618 2.5537 3.63773 2.5537 21.4127 -1.44111 3.63773 -1.44111 18.0965" energy=-10116.429802 pbc="T T T"
C      -0.02056399      -0.03964777      -0.02519437       1.34027632       3.30399825       0.57787567        6 
C       0.89802326       0.90562503       0.90390080      -1.20636793      -0.42721880      -0.86903764        6 
C       1.75433844       1.78510861       0.01132211      -0.12425728      -1.35386260      -1.14206185        6 
C       2.61854377       2.66850334       0.86113181       1.02720958      -0.70068169       0.77854608        6 
C       1.75764859       0.01975380       1.79174107      -1.60579771      -0.30117994      -1.45668023        6 
C       2.60072740       0.85994707       2.64156302       2.11815259       1.46412861       0.34348539        6 
C      -0.02507539       1.79756717       1.75445451       2.57021972      -1.12782901       0.28899988        6 
C       0.89706547       2.67187574       2.65453179      -0.69215199      -0.75121417      -1.37553880        6 
C       0.00136676      -0.03622146      -3.50434985       0.13362843       1.51833253      -0.74572102        6 
C       0.86088677       0.88915248      -2.64062820       0.84874807      -1.16531910      -0.20571232        6 
C       1.76759782       1.77134225       3.49014067      -1.24032739      -0.44515361       1.49616644        6 
C       2.64197570       2.59136942      -2.61185887      -0.06031080       1.13467326      -1.28750114        6 
C       1.75693542      -0.02348647      -1.74537954      -0.32032500       1.35052725      -1.31393158        6 
C       2.62038697       0.85220172      -0.91026823       0.88248473       0.88650736       1.52976847        6 
C      -0.01589318       1.74853871      -1.75768086       0.50078502       0.27458681      -0.41534998        6 
C       0.84339712       2.62606280      -0.89787459       1.56900235       0.03902562       1.52891818        6 
C       0.03493600      -3.50568691       0.04245529      -1.51875438      -0.54498011      -2.37277803        6 
C       0.86412150      -2.64936635       0.87226290       0.87198011       1.89947988       1.31228100        6 
C       1.78385834      -1.78098354       0.04008629      -2.12620140       1.52882838      -1.61955462        6 
C       2.58675494      -0.85360703       0.91220972       1.65423345      -1.01601526      -1.46797351        6 
C       1.76110110      -3.46803467       1.75004958      -1.21715860      -1.52609520       0.04837437        6 
C       2.60371409      -2.63272812       2.59845702       1.10005536       1.30246196       1.42353728        6 
C      -0.04046201      -1.73052215       1.78990687       0.97462537      -1.05029961      -2.59615174        6 
C       0.84952281      -0.88194859       2.61071463       0.63342555       0.76706222       1.82535483        6 
C      -0.00903134       3.51392218       3.48721301       0.07927890       0.83970476       1.76930152        6 
C       0.89936428      -2.63194247      -2.62446351      -0.66403573       0.48983217      -0.50357350        6 
C       1.76881784      -1.71947635       3.48564188      -1.13710294      -1.19450622       0.94376239        6 
C       2.64480130      -0.87454011      -2.64104432       0.21483542      -0.99594359       0.36055070        6 
C       1.74655689       3.48773309      -1.73909631       0.26215301       0.27314934      -1.05407431        6 
C       2.62302860      -2.63150402      -0.89016797       1.08807932      -0.23311289       1.39425582        6 
C      -0.00140062      -1.72385769      -1.71830336       0.50008235      -1.74085482      -1.67865013        6 
C       0.87609264      -0.84250094      -0.88779822       0.26721483      -2.12958013       1.11774071        6 
C       3.49545663      -0.03635850      -0.02511454      -0.23190700       1.30143051       0.96743733        6 
C      -2.61189840       0.86932971       0.86610236      -0.54081971       0.68974055      -0.43411116        6 
C      -1.72104584       1.73630224      -0.02360721      -0.82059521       1.13305771       0.65384981        6 
C      -0.83930612       2.64303459       0.86618186      -1.31563578      -0.64962086       0.17320282        6 
C      -1.74193053       0.02292450       1.74743352      -0.39900809      -0.26396661      -0.36854945        6 
C      -0.86255739       0.90515310       2.60130031      -0.97288652      -0.72877880       1.29760694        6 
C      -3.47847807       1.79749771       1.74649539      -1.18244185      -1.85374556      -0.13085532        6 
C      -2.60203700       2.61130451       2.66345517      -1.59051450       1.88224988      -2.20048953        6 
C      -3.46061177      -0.01568941      -3.47577985      -2.01708663       0.91333268      -1.92922995        6 
C      -2.62685745       0.88365285      -2.66786601       0.87719641      -1.13274266       1.10680535        6 
C      -1.78707416       1.74928192       3.47687257       2.28360600      -0.04172695       2.14257404        6 
C      -0.87388121       2.62093189      -2.59894459      -0.14591155       0.17894099      -3.01027758        6 
C      -1.76505295      -0.03093495      -1.77802263       0.41631844       1.91090634      -0.02803682        6 
C      -0.89324234       0.90948217      -0.91876207       0.60033663      -2.90726463       1.03623884        6 
C      -3.46048502       1.73332570      -1.77104820      -1.35596451       0.52260899       0.53568403        6 
C      -2.60746069       2.61887737      -0.87699764      -0.11033242       0.52359493      -0.11132112        6 
C      -3.48427202      -3.49056044       0.02381453      -0.39457508      -0.73930080      -1.58303527        6 
C      -2.61078785      -2.64308067       0.88199407      -0.83913138       0.73056936       0.51905634        6 
C      -1.76936940      -1.78166791      -0.00595923       1.27860266       0.94246094       0.15031893        6 
C      -0.86820257      -0.85009023       0.85543548      -1.33409386      -1.68499039       0.85569186        6 
C      -1.71981448       3.47855894       1.76047172      -1.59201167       0.80475527      -0.85402931        6 
C      -0.91030068      -2.64358381       2.59997286       0.85840878       1.31474145       2.05384722        6 
C       3.45812658      -1.73356136       1.75128331       2.03363591      -0.33465177       0.40485536        6 
C      -2.64547914      -0.84146146       2.64153747       0.20877582      -0.59450469      -0.76598520        6 
C       3.47826942      -3.49305161       3.48787569       0.40805852      -1.03134597       1.40926921        6 
C      -2.65287497      -2.66631642      -2.61978811       1.34002217       1.55125438      -1.76461144        6 
C      -1.79395396      -1.71245888       3.48742233       0.69079077      -2.27078361       0.89309278        6 
C      -0.89145843      -0.89080565      -2.63987705       0.38652121      -0.13788253       0.01056817        6 
C      -1.73551891      -3.49218307      -1.78042549      -0.13739884      -1.31842620       1.57893465        6 
C      -0.84697943      -2.65902700      -0.86396829      -0.88471799       1.55462294      -0.04819793        6 
C      -3.46022189      -1.77378874      -1.75783181      -2.61231911       0.25671058      -0.30492767        6 
C      -2.63180680      -0.88298715      -0.90589066       0.37139905      -0.88969715       1.10999576        6 
64
Lattice="7.029877 0.008704 0.01434 0.004057 7.004308 0.005349 -0.009487 0.003672 7.017791" Properties=species:S:1:pos:R:3:force:R:3:Z:I:1 DFT_virial="17.1548 0.500362 -0.0997118 0.500362 24.7516 -0.264511 -0.0997118 -0.264511 20.9373" energy=-10116.184627 pbc="T T T"
C       0.03071405      -0.03767245       0.01469410      -0.82324343       1.39180202      -0.21745342        6 
C       0.90168433       0.87432683       0.91936063      -1.23225339       0.55907571      -1.97539294        6 
C       1.73311853       1.77903789      -0.02477408       1.42225640      -1.83993558       2.07162149        6 
C       2.66760111       2.61230617       0.85855761      -1.70409960       1.47286272       0.10357837        6 
C       1.74661487       0.00569966       1.77813750      -0.07453110      -0.12876799      -0.88322362        6 
C       2.59434423       0.88629435       2.62261114       1.66464127      -0.04345979       1.41030565        6 
C      -0.02016174       1.77911686       1.73569641       1.18352863      -1.53407140       1.14640433        6 
C       0.86222023       2.63422149       2.65593640       0.15212194       0.57181740      -0.71071778        6 
C      -0.01786520      -0.01808546      -3.49465170       0.68346688       0.79105567      -1.73447133        6 
C       0.85470186       0.85189488      -2.66073941       1.67361703       1.57868939       1.92497755        6 
C       1.77776136       1.77029492       3.50977992      -2.39307153      -1.19816783       0.07891609        6 
C       2.62585914       2.59593653      -2.60695440       0.77262160       1.43604302       0.26132264        6 
C       1.77226710       0.03123977      -1.72036429      -1.11551413      -2.37493715      -2.33652639        6 
C       2.63975973       0.86397250      -0.87209722      -0.20177765       0.78882748       0.53588314        6 
C       0.01981146       1.76903310      -1.71650686      -1.82125384      -0.99959656      -2.06856205        6 
C       0.84688841       2.63422069      -0.85888657       1.59900167       0.27412741       0.00209376        6 
C       0.01318587      -3.47728871       0.00155108      -1.80647774      -0.79297300      -0.80322870        6 
C       0.85228812      -2.59447472       0.83764360       1.50904432      -1.53529184       1.90323752        6 
C       1.78489448      -1.76901610      -0.00902231      -1.22230558       1.77525479       0.99128799        6 
C       2.63410946      -0.83504578       0.87744050       0.67528384      -1.67972305       0.05260710        6 
C       1.76641419       3.48653212       1.75141332      -0.43273498       1.32615360      -0.09359202        6 
C       2.62936001      -2.59942580       2.62939347       1.04808368      -2.08576608      -0.14437891        6 
C      -0.02860901      -1.76398369       1.76259977       1.09159995       1.19447138      -2.03792513        6 
C       0.83785149      -0.89950173       2.59756212       1.47261040       0.54331577       2.00700199        6 
C      -0.03651000      -3.47742972      -3.48590244       0.89376867      -0.94238560      -0.72851974        6 
C       0.85051234      -2.66229751      -2.61448531       1.71788513       1.22219561      -0.14863862        6 
C       1.77516464      -1.78444947       3.50444652      -2.11350314       0.84488016       0.05254209        6 
C       2.65249885      -0.90994355      -2.66344900      -1.06161006       1.34477286       2.01471878        6 
C       1.74404424       3.48383637      -1.71687694       0.17675511       0.60331423      -1.25089452        6 
C       2.63558941      -2.59698893      -0.86919360       0.18657076      -1.78738995      -0.96532185        6 
C       0.03259449      -1.75069262      -1.73678627      -1.51457223       0.03645012      -1.48303234        6 
C       0.87992295      -0.90013718      -0.87385846       1.47317520       1.15225471       0.22248743        6 
C      -3.48113016      -0.03310886      -0.04148218      -1.58640515       1.93783679       2.26665317        6 
C      -2.64188573       0.87502248       0.90828333      -0.10097490      -0.18166076      -1.82589809        6 
C      -1.79630108       1.75183373      -0.00570232       2.27408094      -0.91160518       0.86571202        6 
C      -0.88521787       2.59727215       0.85973061       0.17127348       2.01832586      -0.23472261        6 
C      -1.72591492      -0.00019000       1.73065829      -2.04349709       0.13922774       0.58673781        6 
C      -0.88015866       0.88006198       2.59407573      -0.13786048       0.13335528       1.68511462        6 
C       3.49130033       1.77937419       1.76981862       0.95371417      -1.77498757      -0.47998384        6 
C      -2.61587220       2.60563914       2.61059003      -1.15118090       1.63797181       0.41798786        6 
C       3.50876127      -0.01560406      -3.47585886      -0.11812647       0.36248583      -2.49853802        6 
C      -2.63792795       0.83895215      -2.67370227      -0.42441843       1.45212936       2.23415816        6 
C      -1.79192921       1.77055791       3.49661387       1.48217453      -1.59549867       0.36710514        6 
C      -0.90901317       2.65969243      -2.59748793       0.90823775      -1.61538889      -1.14965183        6 
C      -1.78303472      -0.00223629      -1.72615102       2.55842334       0.71160869      -2.39102319        6 
C      -0.85752493       0.86448544      -0.87329747      -0.87960761       0.28968389       0.47655891        6 
C       3.47885238       1.75112790      -1.70633084       2.03723439      -0.31519868      -1.89304603        6 
C      -2.59991895       2.62217746      -0.86746043      -2.39001476       0.17751756      -0.71660543        6 
C      -3.50982037      -3.49142726      -0.04291441      -0.05217657      -0.20009865       1.04927828        6 
C      -2.67635208      -2.60576258       0.83301591       2.34158052      -0.63715219       1.47048008        6 
C      -1.72731017      -1.73974630       0.01960165      -1.96748248      -0.40149781      -2.30626598        6 
C      -0.90150053      -0.87283417       0.84299482       1.65698226      -0.12751939       1.93246171        6 
C      -1.72880024       3.49406654       1.72468485      -1.34663017       0.42241585       0.40821324        6 
C      -0.86084712      -2.59868595       2.60344900      -2.13596402      -1.50463845       1.16353405        6 
C      -3.48086340      -1.73101005       1.76730577      -2.80940054      -1.09244314      -2.03296087        6 
C      -2.67167764      -0.89576939       2.60695730       2.42029403       1.89907155       1.24380603        6 
C      -3.47189865       3.47732831      -3.49067076      -1.72989414       0.15104848      -1.19686022        6 
C      -2.64585733      -2.64636202      -2.64628360       0.75006736       0.44278003       0.73028297        6 
C      -1.78271797      -1.73428176       3.48837406       0.88446458      -0.75257138       0.47965049        6 
C      -0.85819444      -0.86381416      -2.63793203      -1.58579093      -0.90935621       0.81385333        6 
C      -1.75990858       3.49222025      -1.73266779      -0.04862130       1.25832258      -0.62975965        6 
C      -0.88780705      -2.59966496      -0.90609296       0.57681796      -0.90488586       1.64800613        6 
C       3.50518936      -1.75070298      -1.76075973       0.97702796       0.06291601       0.12367589        6 
C      -2.60126690      -0.85203109      -0.88833748      -1.36341137      -2.13709272       0.19493932        6 
64
Lattice="7.021435 -0.005975 -0.003427 0.007273 6.996886 0.001931 -0.017963 0.020066 7.010182" Properties=species:S:1:pos:R:3:force:R:3:Z:I:1 DFT_virial="20.161 -0.836616 4.77777 -0.836616 27.8719 -4.98034 4.77777 -4.98034 23.6677" energy=-10116.476228 pbc="T T T"
C      -0.03072019      -0.01695943      -0.00631988       1.02930456       0.53374453       0.53414365        6 
C       0.89741977       0.86005910       0.85918346      -1.74984306       1.19296686       0.13040779        6 
C       1.72150820       1.77405099      -0.02531253       1.57621814      -1.31239299       1.03512602        6 
C       2.64799147       2.59029035       0.89204305      -0.87524553       1.67926316      -1.58451260        6 
C       1.74245105       0.01471365       1.72817684       0.38081093      -1.70461709       1.16171447        6 
C       2.63742817       0.86159847       2.63096810      -1.50014459       1.03268691      -0.09417402        6 
C       0.03201345       1.77703774       1.76224301      -1.83166793      -0.48520250      -0.84780799        6 
C       0.89320738       2.64894716       2.60248492      -0.16820841      -0.53309358       1.37007386        6 
C      -0.00121685       0.01927787       3.49830393      -0.79153193      -0.50358510      -0.07812602        6 
C       0.85918183       0.83578007      -2.66250955       0.78003025       2.04162054       1.29809355        6 
C       1.71186116       1.73573812       3.49517378       1.64562771       1.09072975       0.18989652        6 
C       2.64008368       2.62468738      -2.59122580      -0.78830244       0.08728967      -2.05419644        6 
C       1.75630743       0.00770208      -1.77099912      -0.73940891      -0.56898499       0.66723118        6 
C       2.59819351       0.89450418      -0.90598377       1.37886960      -0.22375713       0.88338332        6 
C      -0.02708716       1.75612825      -1.77646659       1.20986264      -0.22813158       1.01155056        6 
C       0.87033624       2.65193417      -0.84398895      -0.26326777      -1.24305567      -2.52713159        6 
C       0.02180553       3.49151382      -0.00910487      -2.04655349       0.84617313       0.88140667        6 
C       0.85956847      -2.63355874       0.85445050       1.04582885       1.08726327       0.94056327        6 
C       1.75972891      -1.74311188      -0.03208701      -0.69367115      -1.20064479       1.36060276        6 
C       2.60562629      -0.90519999       0.86977934       1.35245485       1.19748934      -0.00728286        6 
C       1.77552608      -3.49415859       1.74899217      -0.77341149       0.14589794      -0.66566588        6 
C       2.61576053      -2.61162103       2.60742460       1.72486844       0.00671799       1.36266866        6 
C      -0.01209640      -1.73147037       1.77980132      -0.19859880      -0.91668003      -1.39109923        6 
C       0.83277328      -0.88866408       2.66549006       2.12667973       1.10743420      -1.63713794        6 
C      -0.00279365      -3.47830513       3.48305795      -0.61732957      -0.59746319       0.93358043        6 
C       0.85516481      -2.61048895      -2.62263322       1.55557354      -0.58613303      -0.48005962        6 
C       1.79939639      -1.75161831      -3.49093246      -1.89568438      -0.16879497      -0.84293940        6 
C       2.65035182      -0.86444805      -2.64128071      -0.65096939      -1.04159769       1.00937362        6 
C       1.72608248      -3.48704910      -1.74650372       0.22235864      -0.84741360      -0.21938856        6 
C       2.60327191      -2.65546656      -0.89550614       1.29502266       1.30782884       0.33561140        6 
C       0.02426532      -1.73628697      -1.75744322      -1.93865913      -0.45712350       0.81373366        6 
C       0.86181631      -0.88691465      -0.84354017       0.68941511       0.55745215      -1.86883590        6 
C      -3.49921125      -0.01484913       0.01437033      -1.37411657       1.76865633      -0.33282791        6 
C      -2.61989975       0.89392505       0.89604368      -1.51635096      -0.68901042      -0.19325477        6 
C      -1.73433273       1.72429337       0.03827342      -0.17726806       1.28579438      -1.87195048        6 
C      -0.89649868       2.66456209       0.85680008       1.37091070      -1.73714525       1.27420162        6 
C      -1.79658543       0.00459020       1.76349325       2.22339300       1.57158614      -0.18328190        6 
C      -0.88223915       0.89737139       2.65868173       0.09843461      -0.46344240      -1.57136749        6 
C       3.47464094       1.75158442       1.75539704       1.95760965      -0.45084286       0.25171731        6 
C      -2.62719857       2.64087623       2.60748786      -1.05721276      -0.51695308       0.96896773        6 
C       3.48590852       0.02122493      -3.46698183       1.72857496      -1.47833466      -1.74456571        6 
C      -2.65812418       0.86465500      -2.59462371       0.60636247       1.01325311      -1.61204302        6 
C      -1.79237967       1.72238285       3.49460130       0.65460356       2.04913291       0.64530542        6 
C      -0.90119412       2.62969152      -2.61762163       0.64962954      -0.65201233      -1.16705098        6 
C      -1.73920866       0.02622278      -1.77941143      -0.52801309      -1.21038070       1.69186690        6 
C      -0.86083532       0.86659461      -0.89094965      -0.71806625       0.56822478       0.54498519        6 
C       3.50877260       1.77463959      -1.77161788       0.21691731      -1.22329281       2.01104426        6 
C      -2.59059339       2.62457022      -0.87604806      -2.05871760      -0.94580334       0.55274364        6 
C      -3.48420741       3.49806716      -0.01423460      -1.25967394      -0.80121180       0.45562355        6 
C      -2.65107855      -2.62142472       0.85429478      -0.35911014       0.40989958       0.91971231        6 
C      -1.79678584      -1.76699750       0.02029687       1.75103313       1.28806107      -0.70712009        6 
C      -0.91159162      -0.84453632       0.89431604       0.34330040      -1.54919547      -0.08979317        6 
C      -1.78933192      -3.46113454       1.72935236       1.23448276      -1.40000450       0.44002249        6 
C      -0.86991542      -2.64887276       2.61897807      -1.28453820       2.12172238      -0.22012623        6 
C      -3.48811065      -1.74089778       1.73960169      -1.81861682       0.10584653       0.43252424        6 
C      -2.61975993      -0.83351126       2.60988849      -1.76874940      -1.32856304       1.58109478        6 
C      -3.46520414       3.48865462      -3.47065873      -1.37875013       0.15569211      -1.62242913        6 
C      -2.59897365      -2.63269627      -2.62579130      -1.25979610       1.09190502      -0.12593263        6 
C      -1.75639179      -1.71365072       3.48241044       0.73751159      -0.77536464       0.97377238        6 
C      -0.83394133      -0.84401721      -2.63902147      -1.76403214      -1.24519248       0.29554412        6 
C      -1.78014608       3.48541647      -1.74163165       2.18144199       0.56353238      -0.15474192        6 