1
config_type=slice_sample energy=-1.119483512529700E+01 virial="-5.703978934983333E-03 -0.000000000000000E+00 -0.000000000000000E+00 -0.000000000000000E+00 -5.703978934983293E-03 -0.000000000000000E+00 -0.000000000000000E+00 -0.000000000000000E+00 -5.703978934983333E-03" Lattice="3.180500495732849E+00  0.000000000000000E+00  0.000000000000000E+00  0.000000000000000E+00  3.180500495732849E+00  0.000000000000000E+00  1.590250242866424E+00  1.590250242866424E+00  1.590250242866424E+00" Properties=species:S:1:pos:R:3:force:R:3:Z:I:1
W          0.000000000000000E+00 0.000000000000000E+00 0.000000000000000E+00 0.000000000000000E+00 0.000000000000000E+00 0.000000000000000E+00      74
1
config_type=slice_sample energy=-1.112699059894089E+01 virial="-2.173033363987340E+00 -0.000000000000000E+00  5.815487283233488E-01 -0.000000000000000E+00 -8.450069889252690E-01 -0.000000000000000E+00  5.815487283233488E-01 -0.000000000000000E+00 -8.762406533705639E-01" Lattice="3.333535977556725E+00  0.000000000000000E+00  0.000000000000000E+00  0.000000000000000E+00  3.180500495732849E+00  0.000000000000000E+00  1.590250242866424E+00  1.590250242866424E+00  1.590250242866424E+00" Properties=species:S:1:pos:R:3:force:R:3:Z:I:1
W          0.000000000000000E+00 0.000000000000000E+00 0.000000000000000E+00 0.000000000000000E+00 0.000000000000000E+00 0.000000000000000E+00      74
1
config_type=slice_sample energy=-1.113328168095495E+01 virial="-2.191716281389271E+00  2.010072565263313E-01  3.761463865110470E-01  2.010072565263313E-01 -8.730663227844153E-01  2.824513167776501E-02  3.761463865110470E-01  2.824513167776501E-02 -8.827530442147667E-01" Lattice="3.333535977556725E+00  0.000000000000000E+00  0.000000000000000E+00 -5.319854411024297E-02  3.180500495732849E+00  0.000000000000000E+00  1.590250242866424E+00  1.590250242866424E+00  1.590250242866424E+00" Properties=species:S:1:pos:R:3:force:R:3:Z:I:1
W          0.000000000000000E+00 0.000000000000000E+00 0.000000000000000E+00 0.000000000000000E+00 0.000000000000000E+00 0.000000000000000E+00      74
1
config_type=slice_sample energy=-1.113962558883100E+01 virial="-1.859270571107249E+00  1.799194702350527E-01  3.865594211471397E-01  1.799194702350527E-01 -1.941859305905259E-02 -1.797554741268757E-01  3.865594211471397E-01 -1.797554741268757E-01 -5.750466013441466E-01" Lattice="3.333535977556725E+00  0.000000000000000E+00  0.000000000000000E+00 -5.319854411024297E-02  3.126899171591486E+00  0.000000000000000E+00  1.590250242866424E+00  1.590250242866424E+00  1.590250242866424E+00" Properties=species:S:1:pos:R:3:force:R:3:Z:I:1
W          0.000000000000000E+00 0.000000000000000E+00 0.000000000000000E+00 0.000000000000000E+00 0.000000000000000E+00 0.000000000000000E+00      74
1
config_type=slice_sample energy=-1.114200270026186E+01 virial="-1.869040802976469E+00  2.148820759446624E-01 -2.984516930620981E-01  2.148820759446624E-01 -2.879040569195766E-02 -2.266840341429049E-01 -2.984516930620981E-01 -2.266840341429049E-01 -5.798752000629104E-01" Lattice="3.333535977556725E+00  0.000000000000000E+00  0.000000000000000E+00 -5.319854411024297E-02  3.126899171591486E+00  0.000000000000000E+00  1.675421929446986E+00  1.590250242866424E+00  1.590250242866424E+00" Properties=species:S:1:pos:R:3:force:R:3:Z:I:1
W          0.000000000000000E+00 0.000000000000000E+00 0.000000000000000E+00 0.000000000000000E+00 0.000000000000000E+00 0.000000000000000E+00      74
1
config_type=slice_sample energy=-1.113884738305092E+01 virial="-1.854274039660899E+00  2.256481256441912E-01 -3.097246066160171E-01  2.256481256441912E-01 -2.793344765799691E-02 -3.583673064138136E-01 -3.097246066160171E-01 -3.583673064138136E-01 -5.709626213411328E-01" Lattice="3.333535977556725E+00  0.000000000000000E+00  0.000000000000000E+00 -5.319854411024297E-02  3.126899171591486E+00  0.000000000000000E+00  1.675421929446986E+00  1.607404264191783E+00  1.590250242866424E+00" Properties=species:S:1:pos:R:3:force:R:3:Z:I:1
W          0.000000000000000E+00 0.000000000000000E+00 0.000000000000000E+00 0.000000000000000E+00 0.000000000000000E+00 0.000000000000000E+00      74
1
config_type=slice_sample energy=-1.112373231810193E+01 virial="-2.154275100131541E+00  2.101001583582298E-01 -3.028119147886461E-01  2.101001583582298E-01 -3.134482731745626E-01 -3.463452300083659E-01 -3.028119147886461E-01 -3.463452300083659E-01 -1.330202922712749E+00" Lattice="3.333535977556725E+00  0.000000000000000E+00  0.000000000000000E+00 -5.319854411024297E-02  3.126899171591486E+00  0.000000000000000E+00  1.675421929446986E+00  1.607404264191783E+00  1.615669744830394E+00" Properties=species:S:1:pos:R:3:force:R:3:Z:I:1
W          0.000000000000000E+00 0.000000000000000E+00 0.000000000000000E+00 0.000000000000000E+00 0.000000000000000E+00 0.000000000000000E+00      74
1
config_type=slice_sample energy=-1.115052935638892E+01 virial="-5.938924707493553E-01  2.813844686082859E-01 -8.543054710078533E-01  2.813844686082859E-01  4.069258506553183E-01 -4.461223010580641E-01 -8.543054710078533E-01 -4.461223010580641E-01 -6.181445970020973E-01" Lattice="3.222213858955720E+00  0.000000000000000E+00  0.000000000000000E+00 -5.319854411024297E-02  3.126899171591486E+00  0.000000000000000E+00  1.675421929446986E+00  1.607404264191783E+00  1.615669744830394E+00" Properties=species:S:1:pos:R:3:force:R:3:Z:I:1
W          0.000000000000000E+00 0.000000000000000E+00 0.000000000000000E+00 0.000000000000000E+00 0.000000000000000E+00 0.000000000000000E+00      74
1
config_type=slice_sample energy=-1.104762234557484E+01 virial="-4.935840929123051E-01  1.055744583678117E+00 -1.720264040514927E+00  1.055744583678117E+00  6.608312708544548E-01 -8.451818003831882E-01 -1.720264040514927E+00 -8.451818003831882E-01 -2.242820950788863E-01" Lattice="3.222213858955720E+00  0.000000000000000E+00  0.000000000000000E+00 -2.188141169060864E-01  3.126899171591486E+00  0.000000000000000E+00  1.675421929446986E+00  1.607404264191783E+00  1.615669744830394E+00" Properties=species:S:1:pos:R:3:force:R:3:Z:I:1
W          0.000000000000000E+00 0.000000000000000E+00 0.000000000000000E+00 0.000000000000000E+00 0.000000000000000E+00 0.000000000000000E+00      74
1
config_type=slice_sample energy=-1.106221787402501E+01 virial="-7.947710899366087E-01  9.821933723542970E-01 -1.586883273120648E+00  9.821933723542970E-01 -6.359375386974299E-02 -5.967335724516517E-01 -1.586883273120648E+00 -5.967335724516517E-01 -5.767009960011651E-01" Lattice="3.222213858955720E+00  0.000000000000000E+00  0.000000000000000E+00 -2.188141169060864E-01  3.172120055085356E+00  0.000000000000000E+00  1.675421929446986E+00  1.607404264191783E+00  1.615669744830394E+00" Properties=species:S:1:pos:R:3:force:R:3:Z:I:1
W          0.000000000000000E+00 0.000000000000000E+00 0.000000000000000E+00 0.000000000000000E+00 0.000000000000000E+00 0.000000000000000E+00      74
1
config_type=slice_sample energy=-1.114637826887997E+01 virial="-8.662187031190854E-01  9.234032872798066E-01 -2.719928808006538E-01  9.234032872798066E-01 -3.510605170394885E-01 -2.470883315795730E-01 -2.719928808006538E-01 -2.470883315795730E-01 -8.529169710220745E-01" Lattice="3.222213858955720E+00  0.000000000000000E+00  0.000000000000000E+00 -2.188141169060864E-01  3.172120055085356E+00  0.000000000000000E+00  1.527772918039281E+00  1.607404264191783E+00  1.615669744830394E+00" Properties=species:S:1:pos:R:3:force:R:3:Z:I:1
W          0.000000000000000E+00 0.000000000000000E+00 0.000000000000000E+00 0.000000000000000E+00 0.000000000000000E+00 0.000000000000000E+00      74
1
config_type=slice_sample energy=-1.111922114458889E+01 virial="-7.488673563890442E-01  8.955012732962562E-01  1.722820724156627E-02  8.955012732962562E-01 -3.418767613557435E-01  9.219126406727349E-01  1.722820724156627E-02  9.219126406727349E-01 -7.674271730522294E-01" Lattice="3.222213858955720E+00  0.000000000000000E+00  0.000000000000000E+00 -2.188141169060864E-01  3.172120055085356E+00  0.000000000000000E+00  1.527772918039281E+00  1.476191594053988E+00  1.615669744830394E+00" Properties=species:S:1:pos:R:3:force:R:3:Z:I:1
W          0.000000000000000E+00 0.000000000000000E+00 0.000000000000000E+00 0.000000000000000E+00 0.000000000000000E+00 0.000000000000000E+00      74
1
config_type=slice_sample energy=-1.112541895879895E+01 virial="-3.917602692936686E-01  9.573303278321921E-01  1.943729171273708E-02  9.573303278321921E-01  2.377271506043544E-02  9.517271767356473E-01  1.943729171273708E-02  9.517271767356473E-01  9.451377925277962E-02" Lattice="3.222213858955720E+00  0.000000000000000E+00  0.000000000000000E+00 -2.188141169060864E-01  3.172120055085356E+00  0.000000000000000E+00  1.527772918039281E+00  1.476191594053988E+00  1.587133842625644E+00" Properties=species:S:1:pos:R:3:force:R:3:Z:I:1
W          0.000000000000000E+00 0.000000000000000E+00 0.000000000000000E+00 0.000000000000000E+00 0.000000000000000E+00 0.000000000000000E+00      74
1
config_type=slice_sample energy=-1.112589234160691E+01 virial="4.962496799586934E-02  9.582892459146432E-01 -1.210638314303898E-01  9.582892459146432E-01  2.167750010064018E-01  9.542744553308348E-01 -1.210638314303898E-01  9.542744553308348E-01  2.802119680236599E-01" Lattice="3.193533506739810E+00  0.000000000000000E+00  0.000000000000000E+00 -2.188141169060864E-01  3.172120055085356E+00  0.000000000000000E+00  1.527772918039281E+00  1.476191594053988E+00  1.587133842625644E+00" Properties=species:S:1:pos:R:3:force:R:3:Z:I:1
W          0.000000000000000E+00 0.000000000000000E+00 0.000000000000000E+00 0.000000000000000E+00 0.000000000000000E+00 0.000000000000000E+00      74
1
config_type=slice_sample energy=-1.109333503254084E+01 virial="8.215363599489196E-02 -4.775322154786530E-01  1.239021820256361E+00 -4.775322154786530E-01  3.522389992800560E-01  8.416520602058004E-01  1.239021820256361E+00  8.416520602058004E-01  3.634095803952486E-01" Lattice="3.193533506739810E+00  0.000000000000000E+00  0.000000000000000E+00  1.571124721388742E-01  3.172120055085356E+00  0.000000000000000E+00  1.527772918039281E+00  1.476191594053988E+00  1.587133842625644E+00" Properties=species:S:1:pos:R:3:force:R:3:Z:I:1
W          0.000000000000000E+00 0.000000000000000E+00 0.000000000000000E+00 0.000000000000000E+00 0.000000000000000E+00 0.000000000000000E+00      74
1
config_type=slice_sample energy=-1.108564439311499E+01 virial="-9.506577157025459E-02 -4.288045514146534E-01  1.182553972342529E+00 -4.288045514146534E-01 -1.466454855168397E-01  9.828138977064667E-01  1.182553972342529E+00  9.828138977064667E-01  1.644481006685996E-01" Lattice="3.193533506739810E+00  0.000000000000000E+00  0.000000000000000E+00  1.571124721388742E-01  3.204934867620705E+00  0.000000000000000E+00  1.527772918039281E+00  1.476191594053988E+00  1.587133842625644E+00" Properties=species:S:1:pos:R:3:force:R:3:Z:I:1
W          0.000000000000000E+00 0.000000000000000E+00 0.000000000000000E+00 0.000000000000000E+00 0.000000000000000E+00 0.000000000000000E+00      74
1
config_type=slice_sample energy=-1.108628275579099E+01 virial="-9.549296537529217E-02 -4.306821621924027E-01  1.174225160962869E+00 -4.306821621924027E-01 -1.490317842537258E-01  9.833691575821603E-01  1.174225160962869E+00  9.833691575821603E-01  1.624962379022805E-01" Lattice="3.193533506739810E+00  0.000000000000000E+00  0.000000000000000E+00  1.571124721388742E-01  3.204934867620705E+00  0.000000000000000E+00  1.528632698105709E+00  1.476191594053988E+00  1.587133842625644E+00" Properties=species:S:1:pos:R:3:force:R:3:Z:I:1
W          0.000000000000000E+00 0.000000000000000E+00 0.000000000000000E+00 0.000000000000000E+00 0.000000000000000E+00 0.000000000000000E+00      74
1
config_type=slice_sample energy=-1.110827390286090E+01 virial="-2.533534240535871E-01 -7.792174932123558E-01  1.371877188034924E+00 -7.792174932123558E-01 -1.364119471589822E-01 -5.272773974572127E-01  1.371877188034924E+00 -5.272773974572127E-01  1.071430978911002E-01" Lattice="3.193533506739810E+00  0.000000000000000E+00  0.000000000000000E+00  1.571124721388742E-01  3.204934867620705E+00  0.000000000000000E+00  1.528632698105709E+00  1.631588666060327E+00  1.587133842625644E+00" Properties=species:S:1:pos:R:3:force:R:3:Z:I:1
W          0.000000000000000E+00 0.000000000000000E+00 0.000000000000000E+00 0.000000000000000E+00 0.000000000000000E+00 0.000000000000000E+00      74
1
config_type=slice_sample energy=-1.110189410641692E+01 virial="4.365517811874025E-02 -8.186534688591283E-01  1.400717991682721E+00 -8.186534688591283E-01  1.631362895271264E-01 -5.442396060808344E-01  1.400717991682721E+00 -5.442396060808344E-01  8.102456341535794E-01" Lattice="3.193533506739810E+00  0.000000000000000E+00  0.000000000000000E+00  1.571124721388742E-01  3.204934867620705E+00  0.000000000000000E+00  1.528632698105709E+00  1.631588666060327E+00  1.565167560928478E+00" Properties=species:S:1:pos:R:3:force:R:3:Z:I:1
W          0.000000000000000E+00 0.000000000000000E+00 0.000000000000000E+00 0.000000000000000E+00 0.000000000000000E+00 0.000000000000000E+00      74
1
config_type=slice_sample energy=-1.110483692510797E+01 virial="1.945914851501239E+00 -8.505224490161425E-01  9.392676259368991E-01 -8.505224490161425E-01  8.107088968480389E-01 -4.732945607129423E-01  9.392676259368991E-01 -4.732945607129423E-01  1.518142467837836E+00" Lattice="3.079166517903551E+00  0.000000000000000E+00  0.000000000000000E+00  1.571124721388742E-01  3.204934867620705E+00  0.000000000000000E+00  1.528632698105709E+00  1.631588666060327E+00  1.565167560928478E+00" Properties=species:S:1:pos:R:3:force:R:3:Z:I:1
W          0.000000000000000E+00 0.000000000000000E+00 0.000000000000000E+00 0.000000000000000E+00 0.000000000000000E+00 0.000000000000000E+00      74
1
config_type=slice_sample energy=-1.115251511577389E+01 virial="1.961858136897199E+00  7.354792947487701E-02  3.348238158813019E-02  7.354792947487701E-02  6.203153047430051E-01 -2.944296667512261E-01  3.348238158813019E-02 -2.944296667512261E-01  1.374285824832017E+00" Lattice="3.079166517903551E+00  0.000000000000000E+00  0.000000000000000E+00 -1.458484112685867E-02  3.204934867620705E+00  0.000000000000000E+00  1.528632698105709E+00  1.631588666060327E+00  1.565167560928478E+00" Properties=species:S:1:pos:R:3:force:R:3:Z:I:1
W          0.000000000000000E+00 0.000000000000000E+00 0.000000000000000E+00 0.000000000000000E+00 0.000000000000000E+00 0.000000000000000E+00      74
1
config_type=slice_sample energy=-1.115148183846395E+01 virial="1.986866622294775E+00  7.383417940174185E-02  3.343383409135138E-02  7.383417940174185E-02  6.768336821118621E-01 -3.129882576204656E-01  3.343383409135138E-02 -3.129882576204656E-01  1.399035101990646E+00" Lattice="3.079166517903551E+00  0.000000000000000E+00  0.000000000000000E+00 -1.458484112685867E-02  3.201510337356118E+00  0.000000000000000E+00  1.528632698105709E+00  1.631588666060327E+00  1.565167560928478E+00" Properties=species:S:1:pos:R:3:force:R:3:Z:I:1
W          0.000000000000000E+00 0.000000000000000E+00 0.000000000000000E+00 0.000000000000000E+00 0.000000000000000E+00 0.000000000000000E+00      74
1
config_type=slice_sample energy=-1.113126530977297E+01 virial="1.986033306022474E+00  3.038761917703035E-02  7.915843765514118E-01  3.038761917703035E-02  7.631072040499114E-01 -3.076698361720663E-01  7.915843765514118E-01 -3.076698361720663E-01  1.450649172184735E+00" Lattice="3.079166517903551E+00  0.000000000000000E+00  0.000000000000000E+00 -1.458484112685867E-02  3.201510337356118E+00  0.000000000000000E+00  1.451639792157059E+00  1.631588666060327E+00  1.565167560928478E+00" Properties=species:S:1:pos:R:3:force:R:3:Z:I:1
W          0.000000000000000E+00 0.000000000000000E+00 0.000000000000000E+00 0.000000000000000E+00 0.000000000000000E+00 0.000000000000000E+00      74
1
config_type=slice_sample energy=-1.113260949393589E+01 virial="1.981770208363933E+00  1.016269965120741E-01  7.948690271173451E-01  1.016269965120741E-01  7.595405353489765E-01  2.200125514138341E-01  7.948690271173451E-01  2.200125514138341E-01  1.451048921591505E+00" Lattice="3.079166517903551E+00  0.000000000000000E+00  0.000000000000000E+00 -1.458484112685867E-02  3.201510337356118E+00  0.000000000000000E+00  1.451639792157059E+00  1.580894992143616E+00  1.565167560928478E+00" Properties=species:S:1:pos:R:3:force:R:3:Z:I:1
W          0.000000000000000E+00 0.000000000000000E+00 0.000000000000000E+00 0.000000000000000E+00 0.000000000000000E+00 0.000000000000000E+00      74
1
config_type=slice_sample energy=-1.110205517230088E+01 virial="2.345170655944429E+00  1.076859442589453E-01  8.131271369631379E-01  1.076859442589453E-01  1.139134576480056E+00  2.247946001774347E-01  8.131271369631379E-01  2.247946001774347E-01  2.367115725290063E+00" Lattice="3.079166517903551E+00  0.000000000000000E+00  0.000000000000000E+00 -1.458484112685867E-02  3.201510337356118E+00  0.000000000000000E+00  1.451639792157059E+00  1.580894992143616E+00  1.540126588993754E+00" Properties=species:S:1:pos:R:3:force:R:3:Z:I:1
W          0.000000000000000E+00 0.000000000000000E+00 0.000000000000000E+00 0.000000000000000E+00 0.000000000000000E+00 0.000000000000000E+00      74
1
config_type=slice_sample energy=-1.111975961741086E+01 virial="9.216376622339746E-01  1.184248161030965E-01  1.154686638902765E+00  1.184248161030965E-01  6.560817903057773E-01  2.210630884632090E-01  1.154686638902765E+00  2.210630884632090E-01  1.819989395490404E+00" Lattice="3.159993904148462E+00  0.000000000000000E+00  0.000000000000000E+00 -1.458484112685867E-02  3.201510337356118E+00  0.000000000000000E+00  1.451639792157059E+00  1.580894992143616E+00  1.540126588993754E+00" Properties=species:S:1:pos:R:3:force:R:3:Z:I:1
W          0.000000000000000E+00 0.000000000000000E+00 0.000000000000000E+00 0.000000000000000E+00 0.000000000000000E+00 0.000000000000000E+00      74
1
config_type=slice_sample energy=-1.112250202632390E+01 virial="2.546609552354611E+00 -0.000000000000000E+00 -7.031954710122216E-01 -0.000000000000000E+00  1.024898803782722E+00 -0.000000000000000E+00 -7.031954710122216E-01 -0.000000000000000E+00  1.016235623936848E+00" Lattice="3.038818724786186E+00  0.000000000000000E+00  0.000000000000000E+00  0.000000000000000E+00  3.180500495732849E+00  0.000000000000000E+00  1.590250242866424E+00  1.590250242866424E+00  1.590250242866424E+00" Properties=species:S:1:pos:R:3:force:R:3:Z:I:1
W          0.000000000000000E+00 0.000000000000000E+00 0.000000000000000E+00 0.000000000000000E+00 0.000000000000000E+00 0.000000000000000E+00      74
1
config_type=slice_sample energy=-1.111694208738982E+01 virial="2.539943942373683E+00  1.072459766077699E-01 -8.130901154452287E-01  1.072459766077699E-01  1.047306471738378E+00 -2.282025179935971E-02 -8.130901154452287E-01 -2.282025179935971E-02  1.037916536541310E+00" Lattice="3.038818724786186E+00  0.000000000000000E+00  0.000000000000000E+00 -2.179885168422987E-02  3.180500495732849E+00  0.000000000000000E+00  1.590250242866424E+00  1.590250242866424E+00  1.590250242866424E+00" Properties=species:S:1:pos:R:3:force:R:3:Z:I:1
W          0.000000000000000E+00 0.000000000000000E+00 0.000000000000000E+00 0.000000000000000E+00 0.000000000000000E+00 0.000000000000000E+00      74
1
config_type=slice_sample energy=-1.112416821542388E+01 virial="2.314306553783661E+00  8.340396391073863E-02 -7.751447264513657E-01  8.340396391073863E-02  5.265602666792041E-01  1.450337592695381E-01 -7.751447264513657E-01  1.450337592695381E-01  8.124076714080194E-01" Lattice="3.038818724786186E+00  0.000000000000000E+00  0.000000000000000E+00 -2.179885168422987E-02  3.212398788197385E+00  0.000000000000000E+00  1.590250242866424E+00  1.590250242866424E+00  1.590250242866424E+00" Properties=species:S:1:pos:R:3:force:R:3:Z:I:1
W          0.000000000000000E+00 0.000000000000000E+00 0.000000000000000E+00 0.000000000000000E+00 0.000000000000000E+00 0.000000000000000E+00      74
1
config_type=slice_sample energy=-1.110502559315591E+01 virial="2.289272320955956E+00  7.506433971950895E-02 -1.091353330286063E+00  7.506433971950895E-02  6.118586670030415E-01  1.395670240654823E-01 -1.091353330286063E+00  1.395670240654823E-01  8.838781429355300E-01" Lattice="3.038818724786186E+00  0.000000000000000E+00  0.000000000000000E+00 -2.179885168422987E-02  3.212398788197385E+00  0.000000000000000E+00  1.622872785386917E+00  1.590250242866424E+00  1.590250242866424E+00" Properties=species:S:1:pos:R:3:force:R:3:Z:I:1
W          0.000000000000000E+00 0.000000000000000E+00 0.000000000000000E+00 0.000000000000000E+00 0.000000000000000E+00 0.000000000000000E+00      74
1
config_type=slice_sample energy=-1.107178726401185E+01 virial="2.366708341138132E+00  2.984850909662429E-01 -1.153459267908989E+00  2.984850909662429E-01  6.505169761287716E-01 -1.078850573162021E+00 -1.153459267908989E+00 -1.078850573162021E+00  9.954183177698540E-01" Lattice="3.038818724786186E+00  0.000000000000000E+00  0.000000000000000E+00 -2.179885168422987E-02  3.212398788197385E+00  0.000000000000000E+00  1.622872785386917E+00  1.703672801629714E+00  1.590250242866424E+00" Properties=species:S:1:pos:R:3:force:R:3:Z:I:1
W          0.000000000000000E+00 0.000000000000000E+00 0.000000000000000E+00 0.000000000000000E+00 0.000000000000000E+00 0.000000000000000E+00      74
1
config_type=slice_sample energy=-1.107280709591282E+01 virial="1.416009883366735E+00  2.626660424729885E-01 -9.857500759688004E-01  2.626660424729885E-01 -2.652328919061731E-01 -9.481702824802276E-01 -9.857500759688004E-01 -9.481702824802276E-01 -8.864525379378166E-01" Lattice="3.038818724786186E+00  0.000000000000000E+00  0.000000000000000E+00 -2.179885168422987E-02  3.212398788197385E+00  0.000000000000000E+00  1.622872785386917E+00  1.703672801629714E+00  1.656141367957325E+00" Properties=species:S:1:pos:R:3:force:R:3:Z:I:1
W          0.000000000000000E+00 0.000000000000000E+00 0.000000000000000E+00 0.000000000000000E+00 0.000000000000000E+00 0.000000000000000E+00      74
1
config_type=slice_sample energy=-1.109842974024400E+01 virial="7.565718697438765E-01  2.279559390823608E-01 -8.183701120589786E-01  2.279559390823608E-01 -5.695736836205819E-01 -9.056221719292009E-01 -8.183701120589786E-01 -9.056221719292009E-01 -1.243721227274206E+00" Lattice="3.078389277843499E+00  0.000000000000000E+00  0.000000000000000E+00 -2.179885168422987E-02  3.212398788197385E+00  0.000000000000000E+00  1.622872785386917E+00  1.703672801629714E+00  1.656141367957325E+00" Properties=species:S:1:pos:R:3:force:R:3:Z:I:1
W          0.000000000000000E+00 0.000000000000000E+00 0.000000000000000E+00 0.000000000000000E+00 0.000000000000000E+00 0.000000000000000E+00      74
1
config_type=slice_sample energy=-1.104124784300393E+01 virial="7.036350073775519E-01 -1.326021912385800E+00  8.706154213760039E-01 -1.326021912385800E+00 -3.879414328991584E-01 -1.142195385582939E+00  8.706154213760039E-01 -1.142195385582939E+00 -9.850919017012831E-01" Lattice="3.078389277843499E+00  0.000000000000000E+00  0.000000000000000E+00  3.006945132323558E-01  3.212398788197385E+00  0.000000000000000E+00  1.622872785386917E+00  1.703672801629714E+00  1.656141367957325E+00" Properties=species:S:1:pos:R:3:force:R:3:Z:I:1
W          0.000000000000000E+00 0.000000000000000E+00 0.000000000000000E+00 0.000000000000000E+00 0.000000000000000E+00 0.000000000000000E+00      74
1
config_type=slice_sample energy=-1.104466707389997E+01 virial="5.762016936266187E-01 -1.294291463946341E+00  8.258187119568157E-01 -1.294291463946341E+00 -6.490278583540239E-01 -1.036689172960808E+00  8.258187119568157E-01 -1.036689172960808E+00 -1.134017436780203E+00" Lattice="3.078389277843499E+00  0.000000000000000E+00  0.000000000000000E+00  3.006945132323558E-01  3.230665029608677E+00  0.000000000000000E+00  1.622872785386917E+00  1.703672801629714E+00  1.656141367957325E+00" Properties=species:S:1:pos:R:3:force:R:3:Z:I:1
W          0.000000000000000E+00 0.000000000000000E+00 0.000000000000000E+00 0.000000000000000E+00 0.000000000000000E+00 0.000000000000000E+00      74
1
config_type=slice_sample energy=-1.106519632329582E+01 virial="5.927434602326210E-01 -1.216317604437541E+00  3.288179265281010E-01 -1.216317604437541E+00 -7.053363730424629E-01 -8.546314520123550E-01  3.288179265281010E-01 -8.546314520123550E-01 -1.221296272269015E+00" Lattice="3.078389277843499E+00  0.000000000000000E+00  0.000000000000000E+00  3.006945132323558E-01  3.230665029608677E+00  0.000000000000000E+00  1.681840409942893E+00  1.703672801629714E+00  1.656141367957325E+00" Properties=species:S:1:pos:R:3:force:R:3:Z:I:1
W          0.000000000000000E+00 0.000000000000000E+00 0.000000000000000E+00 0.000000000000000E+00 0.000000000000000E+00 0.000000000000000E+00      74
1
config_type=slice_sample energy=-1.106357695259203E+01 virial="5.964404406576157E-01 -1.218109457551729E+00  3.381286512904682E-01 -1.218109457551729E+00 -7.036637814178828E-01 -8.839756762784151E-01  3.381286512904682E-01 -8.839756762784151E-01 -1.214388498598493E+00" Lattice="3.078389277843499E+00  0.000000000000000E+00  0.000000000000000E+00  3.006945132323558E-01  3.230665029608677E+00  0.000000000000000E+00  1.681840409942893E+00  1.706757841868072E+00  1.656141367957325E+00" Properties=species:S:1:pos:R:3:force:R:3:Z:I:1
W          0.000000000000000E+00 0.000000000000000E+00 0.000000000000000E+00 0.000000000000000E+00 0.000000000000000E+00 0.000000000000000E+00      74
1
config_type=slice_sample energy=-1.095008345730503E+01 virial="-5.302121768029835E-01 -8.776857520272425E-01  2.950366536729647E-01 -8.776857520272425E-01 -1.747195206333019E+00 -7.005089930926873E-01  2.950366536729647E-01 -7.005089930926873E-01 -3.077344595896728E+00" Lattice="3.078389277843499E+00  0.000000000000000E+00  0.000000000000000E+00  3.006945132323558E-01  3.230665029608677E+00  0.000000000000000E+00  1.681840409942893E+00  1.706757841868072E+00  1.743944114741169E+00" Properties=species:S:1:pos:R:3:force:R:3:Z:I:1
W          0.000000000000000E+00 0.000000000000000E+00 0.000000000000000E+00 0.000000000000000E+00 0.000000000000000E+00 0.000000000000000E+00      74
1
config_type=slice_sample energy=-1.095137973338296E+01 virial="5.737837538608954E-01 -8.077301494430845E-01  5.912543636184247E-02 -8.077301494430845E-01 -1.271013022794058E+00 -6.122239203474013E-01  5.912543636184247E-02 -6.122239203474013E-01 -2.440075374644430E+00" Lattice="3.001706571918815E+00  0.000000000000000E+00  0.000000000000000E+00  3.006945132323558E-01  3.230665029608677E+00  0.000000000000000E+00  1.681840409942893E+00  1.706757841868072E+00  1.743944114741169E+00" Properties=species:S:1:pos:R:3:force:R:3:Z:I:1
W          0.000000000000000E+00 0.000000000000000E+00 0.000000000000000E+00 0.000000000000000E+00 0.000000000000000E+00 0.000000000000000E+00      74
1
config_type=slice_sample energy=-1.095842859258300E+01 virial="5.310033084443162E-01 -5.346083254577579E-02 -7.571393314807088E-01 -5.346083254577579E-02 -1.301877718652669E+00 -5.723640003849765E-01 -7.571393314807088E-01 -5.723640003849765E-01 -2.375482903291292E+00" Lattice="3.001706571918815E+00  0.000000000000000E+00  0.000000000000000E+00  7.199413556243398E-02  3.230665029608677E+00  0.000000000000000E+00  1.681840409942893E+00  1.706757841868072E+00  1.743944114741169E+00" Properties=species:S:1:pos:R:3:force:R:3:Z:I:1
W          0.000000000000000E+00 0.000000000000000E+00 0.000000000000000E+00 0.000000000000000E+00 0.000000000000000E+00 0.000000000000000E+00      74
1
config_type=slice_sample energy=-1.095313988005091E+01 virial="1.219913099598261E+00  3.931866402725943E-02 -8.945660643217979E-01  3.931866402725943E-02  8.735636594990114E-02 -1.014810102276372E+00 -8.945660643217979E-01 -1.014810102276372E+00 -1.406811355342708E+00" Lattice="3.001706571918815E+00  0.000000000000000E+00  0.000000000000000E+00  7.199413556243398E-02  3.125835011509266E+00  0.000000000000000E+00  1.681840409942893E+00  1.706757841868072E+00  1.743944114741169E+00" Properties=species:S:1:pos:R:3:force:R:3:Z:I:1
W          0.000000000000000E+00 0.000000000000000E+00 0.000000000000000E+00 0.000000000000000E+00 0.000000000000000E+00 0.000000000000000E+00      74
1
config_type=slice_sample energy=-1.098358286231382E+01 virial="1.329786945054797E+00 -2.728933928834578E-01  2.010666300102295E-01 -2.728933928834578E-01 -2.176593680030844E-02 -9.968431766474029E-01  2.010666300102295E-01 -9.968431766474029E-01 -1.731560388039056E+00" Lattice="3.001706571918815E+00  0.000000000000000E+00  0.000000000000000E+00  7.199413556243398E-02  3.125835011509266E+00  0.000000000000000E+00  1.522664627644603E+00  1.706757841868072E+00  1.743944114741169E+00" Properties=species:S:1:pos:R:3:force:R:3:Z:I:1
W          0.000000000000000E+00 0.000000000000000E+00 0.000000000000000E+00 0.000000000000000E+00 0.000000000000000E+00 0.000000000000000E+00      74
1
config_type=slice_sample energy=-1.102155792925396E+01 virial="1.340928807420046E+00 -2.267081645660373E-01  1.196443803765566E-01 -2.267081645660373E-01  2.482428019128508E-02 -3.155234308405157E-01  1.196443803765566E-01 -3.155234308405157E-01 -2.130234072165545E+00" Lattice="3.001706571918815E+00  0.000000000000000E+00  0.000000000000000E+00  7.199413556243398E-02  3.125835011509266E+00  0.000000000000000E+00  1.522664627644603E+00  1.606398214114054E+00  1.743944114741169E+00" Properties=species:S:1:pos:R:3:force:R:3:Z:I:1
W          0.000000000000000E+00 0.000000000000000E+00 0.000000000000000E+00 0.000000000000000E+00 0.000000000000000E+00 0.000000000000000E+00      74
1